/*--------------------------------*- C++ -*----------------------------------*\
  =========                  
  \\      /  F ield           OpenFOAM: The Open Source CFD Toolbox
   \\    /   O peration       Website:  www.openfoam.com
    \\  /    A nd             Version:  v2506
     \\/     M anipulation   
\*---------------------------------------------------------------------------*/
FoamFile
{
    format      ascii;
    class       volVectorField;
    location    "0";
    object      U;
}
// * * * * * * * * * * * * * * * * * * * * * * * * * * * * * * * * * * * * * //
// #include "../system/flow_region_geom"
#include "initial_values"

dimensions      [0 1 -1 0 0 0 0];

internalField   uniform (0 0 0);

boundaryField
{
    #includeEtc "caseDicts/setConstraintTypes"
    
    inlet
    {
        type            zeroGradient;
    }

    outlet
    {
        type            zeroGradient;
    }

    lowerWall
    {
        type            noSlip;
    }

    upperWall
    {
        type            noSlip;
    }

    defaultFaces
    {
        type            empty;
    }
}


// ************************************************************************* //
